! jPCBSim: Simulation Results For /home/radioactive/projects/github/jPCBSim/examples//default Project.
! Frequency       S11
# MHz  S  RI R  50
0.000   -0.994   -0.000
1.261   -0.994   -0.011
2.522   -0.994   -0.022
3.783   -0.994   -0.033
5.044   -0.993   -0.044
6.305   -0.993   -0.054
7.566   -0.992   -0.065
8.827   -0.991   -0.076
10.088   -0.990   -0.087
11.349   -0.989   -0.098
12.610   -0.988   -0.108
13.871   -0.987   -0.119
15.132   -0.985   -0.130
16.393   -0.984   -0.141
17.654   -0.982   -0.151
18.915   -0.980   -0.162
20.176   -0.978   -0.173
21.437   -0.976   -0.183
22.698   -0.974   -0.194
23.959   -0.972   -0.204
25.220   -0.969   -0.215
26.481   -0.967   -0.225
27.742   -0.964   -0.236
29.003   -0.961   -0.246
30.264   -0.959   -0.256
31.525   -0.956   -0.267
32.786   -0.953   -0.277
34.047   -0.949   -0.287
35.308   -0.946   -0.297
36.569   -0.943   -0.307
37.830   -0.939   -0.318
39.091   -0.936   -0.328
40.352   -0.932   -0.338
41.613   -0.928   -0.347
42.874   -0.924   -0.357
44.135   -0.920   -0.367
45.396   -0.916   -0.377
46.656   -0.912   -0.387
47.917   -0.908   -0.396
49.178   -0.903   -0.406
50.439   -0.899   -0.415
51.700   -0.894   -0.425
52.961   -0.890   -0.434
54.222   -0.885   -0.444
55.483   -0.880   -0.453
56.744   -0.875   -0.462
58.005   -0.870   -0.471
59.266   -0.865   -0.481
60.527   -0.860   -0.490
61.788   -0.855   -0.499
63.049   -0.849   -0.508
64.310   -0.844   -0.517
65.571   -0.838   -0.525
66.832   -0.833   -0.534
68.093   -0.827   -0.543
69.354   -0.821   -0.552
70.615   -0.815   -0.560
71.876   -0.809   -0.569
73.137   -0.803   -0.577
74.398   -0.797   -0.586
75.659   -0.791   -0.594
76.920   -0.785   -0.602
78.181   -0.778   -0.610
79.442   -0.772   -0.618
80.703   -0.765   -0.627
81.964   -0.759   -0.634
83.225   -0.752   -0.642
84.486   -0.745   -0.650
85.747   -0.738   -0.658
87.008   -0.731   -0.666
88.269   -0.724   -0.673
89.530   -0.717   -0.681
90.791   -0.710   -0.688
92.052   -0.703   -0.696
93.313   -0.696   -0.703
94.574   -0.688   -0.710
95.835   -0.681   -0.717
97.096   -0.673   -0.724
98.357   -0.666   -0.731
99.618   -0.658   -0.738
100.879   -0.650   -0.745
102.140   -0.643   -0.751
103.401   -0.635   -0.758
104.662   -0.627   -0.764
105.923   -0.619   -0.771
107.184   -0.611   -0.777
108.445   -0.603   -0.783
109.706   -0.594   -0.789
110.967   -0.586   -0.795
112.228   -0.578   -0.801
113.489   -0.570   -0.807
114.750   -0.561   -0.813
116.011   -0.553   -0.819
117.272   -0.544   -0.824
118.533   -0.536   -0.830
119.794   -0.527   -0.835
121.055   -0.519   -0.840
122.316   -0.510   -0.845
123.577   -0.501   -0.850
124.838   -0.493   -0.855
126.099   -0.484   -0.860
127.360   -0.475   -0.865
128.621   -0.466   -0.870
129.882   -0.458   -0.874
131.143   -0.449   -0.879
132.404   -0.440   -0.883
133.665   -0.431   -0.887
134.926   -0.422   -0.891
136.187   -0.413   -0.896
137.448   -0.404   -0.900
138.708   -0.395   -0.903
139.969   -0.386   -0.907
141.230   -0.377   -0.911
142.491   -0.367   -0.914
143.752   -0.358   -0.918
145.013   -0.349   -0.921
146.274   -0.340   -0.925
147.535   -0.331   -0.928
148.796   -0.322   -0.931
150.057   -0.312   -0.934
151.318   -0.303   -0.937
152.579   -0.294   -0.940
153.840   -0.285   -0.942
155.101   -0.275   -0.945
156.362   -0.266   -0.948
157.623   -0.257   -0.950
158.884   -0.247   -0.952
160.145   -0.238   -0.955
161.406   -0.229   -0.957
162.667   -0.220   -0.959
163.928   -0.210   -0.961
165.189   -0.201   -0.963
166.450   -0.192   -0.965
167.711   -0.182   -0.966
168.972   -0.173   -0.968
170.233   -0.164   -0.969
171.494   -0.154   -0.971
172.755   -0.145   -0.972
174.016   -0.136   -0.973
175.277   -0.126   -0.975
176.538   -0.117   -0.976
177.799   -0.108   -0.977
179.060   -0.098   -0.978
180.321   -0.089   -0.978
181.582   -0.080   -0.979
182.843   -0.070   -0.980
184.104   -0.061   -0.980
185.365   -0.052   -0.981
186.626   -0.042   -0.981
187.887   -0.033   -0.981
189.148   -0.024   -0.981
190.409   -0.015   -0.982
191.670   -0.006   -0.982
192.931   0.004   -0.981
194.192   0.013   -0.981
195.453   0.022   -0.981
196.714   0.031   -0.981
197.975   0.040   -0.980
199.236   0.049   -0.980
200.497   0.059   -0.979
201.758   0.068   -0.978
203.019   0.077   -0.978
204.280   0.086   -0.977
205.541   0.095   -0.976
206.802   0.104   -0.975
208.063   0.113   -0.974
209.324   0.122   -0.973
210.585   0.130   -0.971
211.846   0.139   -0.970
213.107   0.148   -0.968
214.368   0.157   -0.967
215.629   0.166   -0.965
216.890   0.175   -0.964
218.151   0.183   -0.962
219.412   0.192   -0.960
220.673   0.201   -0.958
221.934   0.209   -0.956
223.195   0.218   -0.954
224.456   0.226   -0.952
225.717   0.235   -0.950
226.978   0.243   -0.948
228.239   0.252   -0.945
229.500   0.260   -0.943
230.760   0.268   -0.940
232.021   0.277   -0.938
233.282   0.285   -0.935
234.543   0.293   -0.933
235.804   0.301   -0.930
237.065   0.310   -0.927
238.326   0.318   -0.924
239.587   0.326   -0.921
240.848   0.334   -0.918
242.109   0.342   -0.915
243.370   0.350   -0.912
244.631   0.358   -0.909
245.892   0.365   -0.906
247.153   0.373   -0.902
248.414   0.381   -0.899
249.675   0.389   -0.896
250.936   0.396   -0.892
252.197   0.404   -0.889
253.458   0.412   -0.885
254.719   0.419   -0.881
255.980   0.427   -0.878
257.241   0.434   -0.874
258.502   0.442   -0.870
259.763   0.449   -0.866
261.024   0.456   -0.862
262.285   0.464   -0.858
263.546   0.471   -0.854
264.807   0.478   -0.850
266.068   0.485   -0.846
267.329   0.492   -0.842
268.590   0.499   -0.837
269.851   0.506   -0.833
271.112   0.513   -0.829
272.373   0.520   -0.824
273.634   0.527   -0.820
274.895   0.534   -0.815
276.156   0.541   -0.811
277.417   0.548   -0.806
278.678   0.554   -0.801
279.939   0.561   -0.797
281.200   0.567   -0.792
282.461   0.574   -0.787
283.722   0.580   -0.782
284.983   0.587   -0.777
286.244   0.593   -0.772
287.505   0.600   -0.767
288.766   0.606   -0.762
290.027   0.612   -0.757
291.288   0.618   -0.752
292.549   0.624   -0.747
293.810   0.630   -0.742
295.071   0.636   -0.736
296.332   0.642   -0.731
297.593   0.648   -0.726
298.854   0.654   -0.720
300.115   0.660   -0.715
301.376   0.665   -0.710
302.637   0.671   -0.704
303.898   0.677   -0.699
305.159   0.682   -0.693
306.420   0.688   -0.687
307.681   0.693   -0.682
308.942   0.699   -0.676
310.203   0.704   -0.670
311.464   0.709   -0.665
312.725   0.714   -0.659
313.986   0.719   -0.653
315.247   0.725   -0.647
316.508   0.730   -0.641
317.769   0.735   -0.635
319.030   0.739   -0.630
320.291   0.744   -0.624
321.552   0.749   -0.618
322.813   0.754   -0.612
324.073   0.759   -0.606
325.334   0.763   -0.600
326.595   0.768   -0.594
327.856   0.772   -0.588
329.117   0.777   -0.581
330.378   0.781   -0.575
331.639   0.785   -0.569
332.900   0.790   -0.563
334.161   0.794   -0.557
335.422   0.798   -0.551
336.683   0.802   -0.544
337.944   0.806   -0.538
339.205   0.810   -0.532
340.466   0.814   -0.526
341.727   0.818   -0.519
342.988   0.822   -0.513
344.249   0.826   -0.507
345.510   0.830   -0.500
346.771   0.834   -0.494
348.032   0.837   -0.488
349.293   0.841   -0.481
350.554   0.844   -0.475
351.815   0.848   -0.468
353.076   0.851   -0.462
354.337   0.855   -0.455
355.598   0.858   -0.449
356.859   0.861   -0.442
358.120   0.865   -0.436
359.381   0.868   -0.429
360.642   0.871   -0.423
361.903   0.874   -0.416
363.164   0.877   -0.410
364.425   0.880   -0.403
365.686   0.883   -0.397
366.947   0.886   -0.390
368.208   0.888   -0.383
369.469   0.891   -0.377
370.730   0.894   -0.370
371.991   0.897   -0.363
373.252   0.899   -0.357
374.513   0.902   -0.350
375.774   0.904   -0.343
377.035   0.907   -0.337
378.296   0.909   -0.330
379.557   0.911   -0.323
380.818   0.914   -0.317
382.079   0.916   -0.310
383.340   0.918   -0.303
384.601   0.920   -0.296
385.862   0.922   -0.290
387.123   0.924   -0.283
388.384   0.926   -0.276
389.645   0.928   -0.269
390.906   0.930   -0.263
392.167   0.932   -0.256
393.428   0.933   -0.249
394.689   0.935   -0.242
395.950   0.937   -0.236
397.211   0.938   -0.229
398.472   0.940   -0.222
399.733   0.941   -0.215
400.994   0.943   -0.209
402.255   0.944   -0.202
403.516   0.945   -0.195
404.777   0.947   -0.188
406.038   0.948   -0.182
407.299   0.949   -0.175
408.560   0.950   -0.168
409.821   0.951   -0.161
411.082   0.952   -0.155
412.343   0.953   -0.148
413.604   0.954   -0.141
414.865   0.955   -0.134
416.125   0.956   -0.128
417.386   0.957   -0.121
418.647   0.957   -0.114
419.908   0.958   -0.108
421.169   0.959   -0.101
422.430   0.959   -0.094
423.691   0.960   -0.088
424.952   0.960   -0.081
426.213   0.961   -0.074
427.474   0.961   -0.068
428.735   0.962   -0.061
429.996   0.962   -0.054
431.257   0.962   -0.048
432.518   0.963   -0.041
433.779   0.963   -0.034
435.040   0.963   -0.028
436.301   0.963   -0.021
437.562   0.963   -0.015
438.823   0.963   -0.008
440.084   0.963   -0.001
441.345   0.963   0.005
442.606   0.963   0.012
443.867   0.963   0.018
445.128   0.963   0.025
446.389   0.962   0.031
447.650   0.962   0.038
448.911   0.962   0.044
450.172   0.961   0.051
451.433   0.961   0.057
452.694   0.961   0.064
453.955   0.960   0.070
455.216   0.960   0.077
456.477   0.959   0.083
457.738   0.958   0.090
458.999   0.958   0.096
460.260   0.957   0.103
461.521   0.956   0.109
462.782   0.955   0.116
464.043   0.955   0.122
465.304   0.954   0.128
466.565   0.953   0.135
467.826   0.952   0.141
469.087   0.951   0.148
470.348   0.950   0.154
471.609   0.949   0.160
472.870   0.948   0.167
474.131   0.946   0.173
475.392   0.945   0.179
476.653   0.944   0.186
477.914   0.943   0.192
479.175   0.941   0.198
480.436   0.940   0.204
481.697   0.938   0.211
482.958   0.937   0.217
484.219   0.935   0.223
485.480   0.934   0.229
486.741   0.932   0.235
488.002   0.931   0.241
489.263   0.929   0.248
490.524   0.927   0.254
491.785   0.925   0.260
493.046   0.924   0.266
494.307   0.922   0.272
495.568   0.920   0.278
496.829   0.918   0.284
498.090   0.916   0.290
499.351   0.914   0.296
500.612   0.912   0.302
501.873   0.910   0.308
503.134   0.908   0.313
504.395   0.906   0.319
505.656   0.904   0.325
506.917   0.901   0.331
508.177   0.899   0.337
509.438   0.897   0.343
510.699   0.895   0.348
511.960   0.892   0.354
513.221   0.890   0.360
514.482   0.887   0.366
515.743   0.885   0.371
517.004   0.883   0.377
518.265   0.880   0.383
519.526   0.877   0.388
520.787   0.875   0.394
522.048   0.872   0.399
523.309   0.870   0.405
524.570   0.867   0.411
525.831   0.864   0.416
527.092   0.862   0.422
528.353   0.859   0.427
529.614   0.856   0.433
530.875   0.853   0.438
532.136   0.850   0.444
533.397   0.847   0.449
534.658   0.845   0.454
535.919   0.842   0.460
537.180   0.839   0.465
538.441   0.836   0.470
539.702   0.833   0.476
540.963   0.829   0.481
542.224   0.826   0.486
543.485   0.823   0.492
544.746   0.820   0.497
546.007   0.817   0.502
547.268   0.813   0.507
548.529   0.810   0.512
549.790   0.807   0.518
551.051   0.803   0.523
552.312   0.800   0.528
553.573   0.797   0.533
554.834   0.793   0.538
556.095   0.790   0.543
557.356   0.786   0.548
558.617   0.783   0.553
559.878   0.779   0.558
561.139   0.775   0.563
562.400   0.772   0.568
563.661   0.768   0.573
564.922   0.764   0.578
566.183   0.760   0.582
567.444   0.757   0.587
568.705   0.753   0.592
569.966   0.749   0.597
571.227   0.745   0.601
572.488   0.741   0.606
573.749   0.737   0.611
575.010   0.733   0.615
576.271   0.729   0.620
577.532   0.725   0.625
578.793   0.721   0.629
580.054   0.717   0.634
581.315   0.713   0.638
582.576   0.708   0.643
583.837   0.704   0.647
585.098   0.700   0.651
586.359   0.696   0.656
587.620   0.691   0.660
588.881   0.687   0.664
590.142   0.683   0.669
591.403   0.678   0.673
592.664   0.674   0.677
593.925   0.669   0.681
595.186   0.665   0.685
596.447   0.660   0.689
597.708   0.656   0.693
598.969   0.651   0.698
600.229   0.647   0.702
601.490   0.642   0.705
602.751   0.638   0.709
604.012   0.633   0.713
605.273   0.628   0.717
606.534   0.624   0.721
607.795   0.619   0.725
609.056   0.614   0.729
610.317   0.610   0.733
611.578   0.605   0.736
612.839   0.600   0.740
614.100   0.595   0.744
615.361   0.590   0.747
616.622   0.585   0.751
617.883   0.581   0.755
619.144   0.576   0.758
620.405   0.571   0.762
621.666   0.566   0.765
622.927   0.561   0.769
624.188   0.556   0.772
625.449   0.550   0.776
626.710   0.545   0.779
627.971   0.540   0.782
629.232   0.535   0.786
630.493   0.530   0.789
631.754   0.525   0.792
633.015   0.519   0.795
634.276   0.514   0.799
635.537   0.509   0.802
636.798   0.504   0.805
638.059   0.498   0.808
639.320   0.493   0.811
640.581   0.487   0.814
641.842   0.482   0.817
643.103   0.476   0.820
644.364   0.471   0.823
645.625   0.465   0.826
646.886   0.460   0.828
648.147   0.454   0.831
649.408   0.449   0.834
650.669   0.443   0.837
651.930   0.437   0.839
653.191   0.432   0.842
654.452   0.426   0.845
655.713   0.420   0.847
656.974   0.414   0.850
658.235   0.409   0.852
659.496   0.403   0.854
660.757   0.397   0.857
662.018   0.391   0.859
663.279   0.385   0.861
664.540   0.379   0.864
665.801   0.373   0.866
667.062   0.367   0.868
668.323   0.361   0.870
669.584   0.355   0.872
670.845   0.349   0.874
672.106   0.343   0.876
673.367   0.337   0.878
674.628   0.331   0.879
675.889   0.325   0.881
677.150   0.319   0.883
678.411   0.312   0.885
679.672   0.306   0.886
680.933   0.300   0.888
682.194   0.294   0.889
683.455   0.288   0.891
684.716   0.281   0.892
685.977   0.275   0.894
687.238   0.269   0.895
688.499   0.262   0.896
689.760   0.256   0.898
691.021   0.250   0.899
692.281   0.243   0.900
693.542   0.237   0.901
694.803   0.231   0.902
696.064   0.224   0.903
697.325   0.218   0.904
698.586   0.211   0.905
699.847   0.205   0.906
701.108   0.198   0.906
702.369   0.192   0.907
703.630   0.185   0.908
704.891   0.179   0.908
706.152   0.172   0.909
707.413   0.166   0.909
708.674   0.159   0.910
709.935   0.152   0.910
711.196   0.146   0.911
712.457   0.139   0.911
713.718   0.132   0.911
714.979   0.126   0.911
716.240   0.119   0.911
717.501   0.112   0.912
718.762   0.106   0.912
720.023   0.099   0.911
721.284   0.092   0.911
722.545   0.085   0.911
723.806   0.078   0.911
725.067   0.071   0.910
726.328   0.065   0.910
727.589   0.058   0.910
728.850   0.051   0.909
730.111   0.044   0.908
731.372   0.037   0.908
732.633   0.030   0.907
733.894   0.023   0.906
735.155   0.016   0.905
736.416   0.009   0.904
737.677   0.002   0.903
738.938   -0.005   0.902
740.199   -0.012   0.900
741.460   -0.019   0.899
742.721   -0.026   0.898
743.982   -0.033   0.896
745.243   -0.041   0.894
746.504   -0.048   0.893
747.765   -0.055   0.891
749.026   -0.062   0.889
750.287   -0.069   0.887
751.548   -0.076   0.885
752.809   -0.083   0.883
754.070   -0.090   0.880
755.331   -0.097   0.878
756.592   -0.104   0.875
757.853   -0.111   0.873
759.114   -0.118   0.870
760.375   -0.125   0.867
761.636   -0.132   0.864
762.897   -0.139   0.861
764.158   -0.146   0.858
765.419   -0.153   0.855
766.680   -0.160   0.852
767.941   -0.167   0.848
769.202   -0.174   0.845
770.463   -0.181   0.841
771.724   -0.188   0.838
772.985   -0.194   0.834
774.246   -0.201   0.830
775.507   -0.208   0.826
776.768   -0.215   0.822
778.029   -0.221   0.817
779.290   -0.228   0.813
780.551   -0.234   0.809
781.812   -0.241   0.804
783.073   -0.247   0.799
784.333   -0.254   0.794
785.594   -0.260   0.789
786.855   -0.267   0.784
788.116   -0.273   0.779
789.377   -0.279   0.774
790.638   -0.285   0.769
791.899   -0.292   0.763
793.160   -0.298   0.757
794.421   -0.304   0.752
795.682   -0.310   0.746
796.943   -0.316   0.740
798.204   -0.321   0.733
799.465   -0.327   0.727
800.726   -0.333   0.721
801.987   -0.338   0.714
803.248   -0.344   0.708
804.509   -0.349   0.701
805.770   -0.355   0.694
807.031   -0.360   0.687
808.292   -0.365   0.680
809.553   -0.370   0.672
810.814   -0.375   0.665
812.075   -0.380   0.657
813.336   -0.384   0.649
814.597   -0.389   0.642
815.858   -0.393   0.634
817.119   -0.397   0.625
818.380   -0.402   0.617
819.641   -0.405   0.609
820.902   -0.409   0.600
822.163   -0.413   0.591
823.424   -0.416   0.583
824.685   -0.420   0.574
825.946   -0.423   0.565
827.207   -0.426   0.556
828.468   -0.428   0.546
829.729   -0.431   0.537
830.990   -0.433   0.527
832.251   -0.435   0.518
833.512   -0.437   0.508
834.773   -0.439   0.498
836.034   -0.440   0.488
837.295   -0.441   0.478
838.556   -0.442   0.468
839.817   -0.443   0.458
841.078   -0.443   0.448
842.339   -0.443   0.438
843.600   -0.443   0.427
844.861   -0.443   0.417
846.122   -0.442   0.407
847.383   -0.441   0.396
848.644   -0.439   0.386
849.905   -0.438   0.375
851.166   -0.436   0.365
852.427   -0.434   0.355
853.688   -0.431   0.344
854.949   -0.428   0.334
856.210   -0.425   0.324
857.471   -0.422   0.314
858.732   -0.418   0.304
859.993   -0.414   0.294
861.254   -0.409   0.284
862.515   -0.404   0.274
863.776   -0.399   0.264
865.037   -0.394   0.255
866.298   -0.388   0.246
867.559   -0.382   0.237
868.820   -0.376   0.228
870.081   -0.370   0.219
871.342   -0.363   0.210
872.603   -0.356   0.202
873.864   -0.348   0.194
875.125   -0.341   0.186
876.385   -0.333   0.178
877.646   -0.325   0.171
878.907   -0.316   0.164
880.168   -0.308   0.157
881.429   -0.299   0.150
882.690   -0.290   0.144
883.951   -0.280   0.138
885.212   -0.271   0.132
886.473   -0.261   0.127
887.734   -0.252   0.122
888.995   -0.242   0.117
890.256   -0.232   0.113
891.517   -0.221   0.109
892.778   -0.211   0.106
894.039   -0.201   0.102
895.300   -0.190   0.100
896.561   -0.180   0.097
897.822   -0.169   0.095
899.083   -0.158   0.093
900.344   -0.148   0.092
901.605   -0.137   0.091
902.866   -0.126   0.090
904.127   -0.115   0.090
905.388   -0.105   0.090
906.649   -0.094   0.090
907.910   -0.084   0.091
909.171   -0.073   0.092
910.432   -0.063   0.094
911.693   -0.052   0.096
912.954   -0.042   0.098
914.215   -0.032   0.101
915.476   -0.022   0.103
916.737   -0.012   0.107
917.998   -0.002   0.110
919.259   0.007   0.114
920.520   0.016   0.118
921.781   0.025   0.123
923.042   0.034   0.127
924.303   0.043   0.132
925.564   0.052   0.138
926.825   0.060   0.143
928.086   0.068   0.149
929.347   0.076   0.155
930.608   0.083   0.161
931.869   0.091   0.168
933.130   0.098   0.174
934.391   0.105   0.181
935.652   0.111   0.188
936.913   0.117   0.195
938.174   0.123   0.203
939.435   0.129   0.210
940.696   0.135   0.218
941.957   0.140   0.225
943.218   0.145   0.233
944.479   0.149   0.241
945.740   0.154   0.249
947.001   0.158   0.257
948.262   0.162   0.265
949.523   0.165   0.274
950.784   0.168   0.282
952.045   0.171   0.290
953.306   0.174   0.298
954.567   0.176   0.307
955.828   0.179   0.315
957.089   0.181   0.323
958.350   0.182   0.332
959.611   0.184   0.340
960.872   0.185   0.348
962.133   0.186   0.356
963.394   0.187   0.365
964.655   0.187   0.373
965.916   0.187   0.381
967.177   0.188   0.389
968.438   0.187   0.397
969.698   0.187   0.405
970.959   0.187   0.412
972.220   0.186   0.420
973.481   0.185   0.428
974.742   0.184   0.435
976.003   0.183   0.443
977.264   0.181   0.450
978.525   0.180   0.457
979.786   0.178   0.465
981.047   0.176   0.472
982.308   0.174   0.479
983.569   0.172   0.486
984.830   0.170   0.492
986.091   0.167   0.499
987.352   0.165   0.506
988.613   0.162   0.512
989.874   0.159   0.519
991.135   0.156   0.525
992.396   0.153   0.531
993.657   0.150   0.537
994.918   0.147   0.543
996.179   0.144   0.549
997.440   0.141   0.555
998.701   0.137   0.560
999.962   0.134   0.566
1001.223   0.130   0.571
1002.484   0.126   0.577
1003.745   0.123   0.582
1005.006   0.119   0.587
1006.267   0.115   0.592
1007.528   0.111   0.597
1008.789   0.107   0.602
1010.050   0.103   0.607
1011.311   0.099   0.612
1012.572   0.095   0.616
1013.833   0.091   0.621
1015.094   0.086   0.625
1016.355   0.082   0.629
1017.616   0.078   0.634
1018.877   0.073   0.638
1020.138   0.069   0.642
1021.399   0.064   0.646
1022.660   0.060   0.650
1023.921   0.055   0.654
1025.182   0.051   0.657
1026.443   0.046   0.661
1027.704   0.041   0.664
1028.965   0.037   0.668
1030.226   0.032   0.671
1031.487   0.027   0.675
1032.748   0.022   0.678
1034.009   0.018   0.681
1035.270   0.013   0.684
1036.531   0.008   0.687
1037.792   0.003   0.690
1039.053   -0.002   0.692
1040.314   -0.007   0.695
1041.575   -0.012   0.698
1042.836   -0.017   0.700
1044.097   -0.022   0.703
1045.358   -0.027   0.705
1046.619   -0.032   0.707
1047.880   -0.037   0.710
1049.141   -0.042   0.712
1050.402   -0.047   0.714
1051.663   -0.052   0.716
1052.924   -0.057   0.718
1054.185   -0.062   0.720
1055.446   -0.067   0.721
1056.707   -0.072   0.723
1057.968   -0.077   0.725
1059.229   -0.082   0.726
1060.490   -0.087   0.728
1061.750   -0.092   0.729
1063.011   -0.097   0.730
1064.272   -0.102   0.732
1065.533   -0.107   0.733
1066.794   -0.112   0.734
1068.055   -0.117   0.735
1069.316   -0.122   0.736
1070.577   -0.127   0.737
1071.838   -0.132   0.738
1073.099   -0.137   0.739
1074.360   -0.142   0.740
1075.621   -0.147   0.740
1076.882   -0.152   0.741
1078.143   -0.157   0.742
1079.404   -0.161   0.742
1080.665   -0.166   0.743
1081.926   -0.171   0.743
1083.187   -0.176   0.744
1084.448   -0.181   0.744
1085.709   -0.185   0.744
1086.970   -0.190   0.745
1088.231   -0.195   0.745
1089.492   -0.200   0.745
1090.753   -0.204   0.745
1092.014   -0.209   0.745
1093.275   -0.214   0.746
1094.536   -0.218   0.746
1095.797   -0.223   0.746
1097.058   -0.228   0.746
1098.319   -0.232   0.746
1099.580   -0.237   0.745
1100.841   -0.241   0.745
1102.102   -0.246   0.745
1103.363   -0.250   0.745
1104.624   -0.255   0.745
1105.885   -0.260   0.744
1107.146   -0.264   0.744
1108.407   -0.269   0.744
1109.668   -0.273   0.743
1110.929   -0.277   0.743
1112.190   -0.282   0.742
1113.451   -0.286   0.742
1114.712   -0.291   0.741
1115.973   -0.295   0.741
1117.234   -0.300   0.740
1118.495   -0.304   0.740
1119.756   -0.308   0.739
1121.017   -0.313   0.738
1122.278   -0.317   0.738
1123.539   -0.321   0.737
1124.800   -0.326   0.736
1126.061   -0.330   0.735
1127.322   -0.334   0.734
1128.583   -0.339   0.734
1129.844   -0.343   0.733
1131.105   -0.347   0.732
1132.366   -0.351   0.731
1133.627   -0.356   0.730
1134.888   -0.360   0.729
1136.149   -0.364   0.728
1137.410   -0.368   0.726
1138.671   -0.372   0.725
1139.932   -0.376   0.724
1141.193   -0.381   0.723
1142.454   -0.385   0.722
1143.715   -0.389   0.720
1144.976   -0.393   0.719
1146.237   -0.397   0.718
1147.498   -0.401   0.717
1148.759   -0.405   0.715
1150.020   -0.409   0.714
1151.281   -0.413   0.712
1152.542   -0.417   0.711
1153.802   -0.421   0.709
1155.063   -0.424   0.708
1156.324   -0.428   0.706
1157.585   -0.432   0.705
1158.846   -0.436   0.703
1160.107   -0.440   0.702
1161.368   -0.443   0.700
1162.629   -0.447   0.698
1163.890   -0.451   0.697
1165.151   -0.455   0.695
1166.412   -0.458   0.693
1167.673   -0.462   0.692
1168.934   -0.466   0.690
1170.195   -0.469   0.688
1171.456   -0.473   0.687
1172.717   -0.476   0.685
1173.978   -0.480   0.683
1175.239   -0.484   0.681
1176.500   -0.487   0.679
1177.761   -0.491   0.678
1179.022   -0.494   0.676
1180.283   -0.497   0.674
1181.544   -0.501   0.672
1182.805   -0.504   0.670
1184.066   -0.508   0.668
1185.327   -0.511   0.666
1186.588   -0.515   0.664
1187.849   -0.518   0.662
1189.110   -0.521   0.660
1190.371   -0.525   0.658
1191.632   -0.528   0.656
1192.893   -0.531   0.654
1194.154   -0.534   0.652
1195.415   -0.538   0.650
1196.676   -0.541   0.648
1197.937   -0.544   0.646
1199.198   -0.547   0.644
1200.459   -0.551   0.642
1201.720   -0.554   0.640
1202.981   -0.557   0.638
1204.242   -0.560   0.636
1205.503   -0.563   0.634
1206.764   -0.567   0.632
1208.025   -0.570   0.629
1209.286   -0.573   0.627
1210.547   -0.576   0.625
1211.808   -0.579   0.623
1213.069   -0.582   0.621
1214.330   -0.585   0.618
1215.591   -0.588   0.616
1216.852   -0.591   0.614
1218.113   -0.594   0.612
1219.374   -0.597   0.609
1220.635   -0.600   0.607
1221.896   -0.603   0.605
1223.157   -0.606   0.602
1224.418   -0.609   0.600
1225.679   -0.612   0.598
1226.940   -0.615   0.595
1228.201   -0.618   0.593
1229.462   -0.620   0.590
1230.723   -0.623   0.588
1231.984   -0.626   0.586
1233.245   -0.629   0.583
1234.506   -0.632   0.581
1235.767   -0.635   0.578
1237.028   -0.637   0.576
1238.289   -0.640   0.573
1239.550   -0.643   0.571
1240.811   -0.645   0.568
1242.072   -0.648   0.566
1243.333   -0.651   0.563
1244.594   -0.653   0.560
1245.854   -0.656   0.558
1247.115   -0.659   0.555
1248.376   -0.661   0.553
1249.637   -0.664   0.550
1250.898   -0.666   0.548
1252.159   -0.669   0.545
1253.420   -0.671   0.542
1254.681   -0.674   0.540
1255.942   -0.676   0.537
1257.203   -0.679   0.535
1258.464   -0.681   0.532
1259.725   -0.684   0.529
1260.986   -0.686   0.527
1262.247   -0.688   0.524
1263.508   -0.691   0.521
1264.769   -0.693   0.519
1266.030   -0.695   0.516
1267.291   -0.698   0.513
1268.552   -0.700   0.511
1269.813   -0.702   0.508
1271.074   -0.705   0.505
1272.335   -0.707   0.503
1273.596   -0.709   0.500
1274.857   -0.711   0.497
1276.118   -0.714   0.495
1277.379   -0.716   0.492
1278.640   -0.718   0.489
1279.901   -0.720   0.486
1281.162   -0.722   0.484
1282.423   -0.725   0.481
1283.684   -0.727   0.478
1284.945   -0.729   0.476
1286.206   -0.731   0.473
1287.467   -0.733   0.470
1288.728   -0.735   0.467
1289.989   -0.737   0.464
1291.250   -0.740   0.462
1292.511   -0.742   0.459
1293.772   -0.744   0.456
1295.033   -0.746   0.453
1296.294   -0.748   0.451
1297.555   -0.750   0.448
1298.816   -0.752   0.445
1300.077   -0.754   0.442
1301.338   -0.756   0.439
1302.599   -0.758   0.436
1303.860   -0.760   0.434
1305.121   -0.762   0.431
1306.382   -0.764   0.428
1307.643   -0.766   0.425
1308.904   -0.767   0.422
1310.165   -0.769   0.419
1311.426   -0.771   0.416
1312.687   -0.773   0.413
1313.948   -0.775   0.410
1315.209   -0.777   0.408
1316.470   -0.779   0.405
1317.731   -0.780   0.402
1318.992   -0.782   0.399
1320.253   -0.784   0.396
1321.514   -0.786   0.393
1322.775   -0.788   0.390
1324.036   -0.789   0.387
1325.297   -0.791   0.384
1326.558   -0.793   0.381
1327.819   -0.794   0.378
1329.080   -0.796   0.375
1330.341   -0.798   0.372
1331.602   -0.799   0.369
1332.863   -0.801   0.366
1334.124   -0.803   0.363
1335.385   -0.804   0.360
1336.646   -0.806   0.357
1337.906   -0.807   0.354
1339.167   -0.809   0.351
1340.428   -0.810   0.348
1341.689   -0.812   0.345
1342.950   -0.813   0.342
1344.211   -0.815   0.339
1345.472   -0.816   0.336
1346.733   -0.818   0.333
1347.994   -0.819   0.330
1349.255   -0.821   0.327
1350.516   -0.822   0.324
1351.777   -0.824   0.321
1353.038   -0.825   0.318
1354.299   -0.826   0.315
1355.560   -0.828   0.312
1356.821   -0.829   0.309
1358.082   -0.830   0.306
1359.343   -0.832   0.303
1360.604   -0.833   0.299
1361.865   -0.834   0.296
1363.126   -0.836   0.293
1364.387   -0.837   0.290
1365.648   -0.838   0.287
1366.909   -0.840   0.284
1368.170   -0.841   0.281
1369.431   -0.842   0.278
1370.692   -0.843   0.275
1371.953   -0.845   0.272
1373.214   -0.846   0.269
1374.475   -0.847   0.266
1375.736   -0.848   0.263
1376.997   -0.849   0.260
1378.258   -0.851   0.257
1379.519   -0.852   0.253
1380.780   -0.853   0.250
1382.041   -0.854   0.247
1383.302   -0.855   0.244
1384.563   -0.856   0.241
1385.824   -0.858   0.238
1387.085   -0.859   0.235
1388.346   -0.860   0.232
1389.607   -0.861   0.229
1390.868   -0.862   0.225
1392.129   -0.863   0.222
1393.390   -0.864   0.219
1394.651   -0.865   0.216
1395.912   -0.866   0.213
1397.173   -0.867   0.210
1398.434   -0.868   0.207
1399.695   -0.869   0.203
1400.956   -0.870   0.200
1402.217   -0.871   0.197
1403.478   -0.872   0.194
1404.739   -0.873   0.191
1406.000   -0.874   0.187
1407.261   -0.875   0.184
1408.522   -0.876   0.181
1409.783   -0.876   0.178
1411.044   -0.877   0.175
1412.305   -0.878   0.172
1413.566   -0.879   0.168
1414.827   -0.880   0.165
1416.088   -0.881   0.162
1417.349   -0.881   0.159
1418.610   -0.882   0.155
1419.871   -0.883   0.152
1421.132   -0.884   0.149
1422.393   -0.884   0.146
1423.654   -0.885   0.143
1424.915   -0.886   0.139
1426.176   -0.887   0.136
1427.437   -0.887   0.133
1428.698   -0.888   0.130
1429.958   -0.889   0.127
1431.219   -0.889   0.123
1432.480   -0.890   0.120
1433.741   -0.890   0.117
1435.002   -0.891   0.114
1436.263   -0.892   0.110
1437.524   -0.892   0.107
1438.785   -0.893   0.104
1440.046   -0.893   0.101
1441.307   -0.894   0.098
1442.568   -0.894   0.094
1443.829   -0.895   0.091
1445.090   -0.895   0.088
1446.351   -0.896   0.085
1447.612   -0.896   0.081
1448.873   -0.897   0.078
1450.134   -0.897   0.075
1451.395   -0.898   0.072
1452.656   -0.898   0.069
1453.917   -0.899   0.065
1455.178   -0.899   0.062
1456.439   -0.900   0.059
1457.700   -0.900   0.056
1458.961   -0.900   0.052
1460.222   -0.901   0.049
1461.483   -0.901   0.046
1462.744   -0.902   0.043
1464.005   -0.902   0.040
1465.266   -0.902   0.036
1466.527   -0.903   0.033
1467.788   -0.903   0.030
1469.049   -0.903   0.027
1470.310   -0.904   0.023
1471.571   -0.904   0.020
1472.832   -0.904   0.017
1474.093   -0.904   0.014
1475.354   -0.905   0.010
1476.615   -0.905   0.007
1477.876   -0.905   0.004
1479.137   -0.905   0.001
1480.398   -0.906   -0.003
1481.659   -0.906   -0.006
1482.920   -0.906   -0.009
1484.181   -0.906   -0.013
1485.442   -0.906   -0.016
1486.703   -0.906   -0.019
1487.964   -0.907   -0.022
1489.225   -0.907   -0.026
1490.486   -0.907   -0.029
1491.747   -0.907   -0.032
1493.008   -0.907   -0.035
1494.269   -0.907   -0.039
1495.530   -0.907   -0.042
1496.791   -0.907   -0.045